<?xml version="1.0"?>
<VTKFile type="UnstructuredGrid" version="0.1" byte_order="BigEndian">
<UnstructuredGrid GhostLevel="0">
<Piece NumberOfPoints="10464" NumberOfCells="1308" ><Points>
<DataArray type="Float64" NumberOfComponents="3" format="ascii">
0	10	1	0	10	0.666667	1	10	1	1	10	0.666667	1	9	1	1	9	0.666667	0	9	1	0	9	0.666667	1	10	1	1	10	0.666667	2	10	1	2	10	0.666667	2	9	1	2	9	0.666667	1	9	1	1	9	0.666667	2	10	1	2	10	0.666667	3	10	1	3	10	0.666667	3	9	1	3	9	0.666667	2	9	1	2	9	0.666667	3	10	1	3	10	0.666667	4	10	1	4	10	0.666667	4	9	1	4	9	0.666667	3	9	1	3	9	0.666667	4	10	1	4	10	0.666667	5	10	1	5	10	0.666667	5	9	1	5	9	0.666667	4	9	1	4	9	0.666667	5	10	1	5	10	0.666667	6	10	1	6	10	0.666667	6	9	1	6	9	0.666667	5	9	1	5	9	0.666667	6	10	1	6	10	0.666667	7	10	1	7	10	0.666667	7	9	1	7	9	0.666667	6	9	1	6	9	0.666667	7	10	1	7	10	0.666667	8	10	1	8	10	0.666667	8	9	1	8	9	0.666667	7	9	1	7	9	0.666667	8	10	1	8	10	0.666667	9	10	1	9	10	0.666667	9	9	1	9	9	0.666667	8	9	1	8	9	0.666667	9	10	1	9	10	0.666667	10	10	1	10	10	0.666667	10	9	1	10	9	0.666667	9	9	1	9	9	0.666667	0	9	1	0	9	0.666667	1	9	1	1	9	0.666667	1	8	1	1	8	0.666667	0	8	1	0	8	0.666667	1	9	1	1	9	0.666667	2	9	1	2	9	0.666667	2	8	1	2	8	0.666667	1	8	1	1	8	0.666667	2	9	1	2	9	0.666667	3	9	1	3	9	0.666667	3	8	1	3	8	0.666667	2	8	1	2	8	0.666667	3	9	1	3	9	0.666667	4	9	1	4	9	0.666667	4	8	1	4	8	0.666667	3	8	1	3	8	0.666667	4	9	1	4	9	0.666667	5	9	1	5	9	0.666667	5	8	1	5	8	0.666667	4	8	1	4	8	0.666667	5	9	1	5	9	0.666667	6	9	1	6	9	0.666667	6	8	1	6	8	0.666667	5	8	1	5	8	0.666667	6	9	1	6	9	0.666667	7	9	1	7	9	0.666667	7	8	1	7	8	0.666667	6	8	1	6	8	0.666667	7	9	1	7	9	0.666667	8	9	1	8	9	0.666667	8	8	1	8	8	0.666667	7	8	1	7	8	0.666667	8	9	1	8	9	0.666667	9	9	1	9	9	0.666667	9	8	1	9	8	0.666667	8	8	1	8	8	0.666667	9	9	1	9	9	0.666667	10	9	1	10	9	0.666667	10	8	1	10	8	0.666667	9	8	1	9	8	0.666667	0	8	1	0	8	0.666667	1	8	1	1	8	0.666667	1	7	1	1	7	0.666667	0	7	1	0	7	0.666667	1	8	1	1	8	0.666667	2	8	1	2	8	0.666667	2	7	1	2	7	0.666667	1	7	1	1	7	0.666667	2	8	1	2	8	0.666667	3	8	1	3	8	0.666667	3	7	1	3	7	0.666667	2	7	1	2	7	0.666667	3	8	1	3	8	0.666667	4	8	1	4	8	0.666667	4	7	1	4	7	0.666667	3	7	1	3	7	0.666667	4	8	1	4	8	0.666667	5	8	1	5	8	0.666667	5	7	1	5	7	0.666667	4	7	1	4	7	0.666667	5	8	1	5	8	0.666667	6	8	1	6	8	0.666667	6	7	1	6	7	0.666667	5	7	1	5	7	0.666667	6	8	1	6	8	0.666667	7	8	1	7	8	0.666667	7	7	1	7	7	0.666667	6	7	1	6	7	0.666667	7	8	1	7	8	0.666667	8	8	1	8	8	0.666667	8	7	1	8	7	0.666667	7	7	1	7	7	0.666667	8	8	1	8	8	0.666667	9	8	1	9	8	0.666667	9	7	1	9	7	0.666667	8	7	1	8	7	0.666667	9	8	1	9	8	0.666667	10	8	1	10	8	0.666667	10	7	1	10	7	0.666667	9	7	1	9	7	0.666667	0	7	1	0	7	0.666667	1	7	1	1	7	0.666667	1	6	1	1	6	0.666667	0	6	1	0	6	0.666667	1	7	1	1	7	0.666667	2	7	1	2	7	0.666667	2	6	1	2	6	0.666667	1	6	1	1	6	0.666667	2	7	1	2	7	0.666667	3	7	1	3	7	0.666667	3	6	1	3	6	0.666667	2	6	1	2	6	0.666667	3	7	1	3	7	0.666667	3.5	7	1	3.5	7	0.666667	3.5	6.5	1	3.5	6.5	0.666667	3	6.5	1	3	6.5	0.666667	3.5	7	1	3.5	7	0.666667	4	7	1	4	7	0.666667	4	6.5	1	4	6.5	0.666667	3.5	6.5	1	3.5	6.5	0.666667	3.5	6.5	1	3.5	6.5	0.666667	4	6.5	1	4	6.5	0.666667	4	6	1	4	6	0.666667	3.5	6	1	3.5	6	0.666667	3	6.5	1	3	6.5	0.666667	3.5	6.5	1	3.5	6.5	0.666667	3.5	6	1	3.5	6	0.666667	3	6	1	3	6	0.666667	4	7	1	4	7	0.666667	4.5	7	1	4.5	7	0.666667	4.5	6.5	1	4.5	6.5	0.666667	4	6.5	1	4	6.5	0.666667	4.5	7	1	4.5	7	0.666667	5	7	1	5	7	0.666667	5	6.5	1	5	6.5	0.666667	4.5	6.5	1	4.5	6.5	0.666667	4.5	6.5	1	4.5	6.5	0.666667	4.75	6.5	1	4.75	6.5	0.666667	4.75	6.25	1	4.75	6.25	0.666667	4.5	6.25	1	4.5	6.25	0.666667	4.75	6.5	1	4.75	6.5	0.666667	5	6.5	1	5	6.5	0.666667	5	6.25	1	5	6.25	0.666667	4.75	6.25	1	4.75	6.25	0.666667	4.75	6.25	1	4.75	6.25	0.666667	5	6.25	1	5	6.25	0.666667	5	6	1	5	6	0.666667	4.75	6	1	4.75	6	0.666667	4.5	6.25	1	4.5	6.25	0.666667	4.75	6.25	1	4.75	6.25	0.666667	4.75	6	1	4.75	6	0.666667	4.5	6	1	4.5	6	0.666667	4	6.5	1	4	6.5	0.666667	4.25	6.5	1	4.25	6.5	0.666667	4.25	6.25	1	4.25	6.25	0.666667	4	6.25	1	4	6.25	0.666667	4.25	6.5	1	4.25	6.5	0.666667	4.5	6.5	1	4.5	6.5	0.666667	4.5	6.25	1	4.5	6.25	0.666667	4.25	6.25	1	4.25	6.25	0.666667	4.25	6.25	1	4.25	6.25	0.666667	4.5	6.25	1	4.5	6.25	0.666667	4.5	6	1	4.5	6	0.666667	4.25	6	1	4.25	6	0.666667	4	6.25	1	4	6.25	0.666667	4.25	6.25	1	4.25	6.25	0.666667	4.25	6	1	4.25	6	0.666667	4	6	1	4	6	0.666667	5	7	1	5	7	0.666667	5.5	7	1	5.5	7	0.666667	5.5	6.5	1	5.5	6.5	0.666667	5	6.5	1	5	6.5	0.666667	5.5	7	1	5.5	7	0.666667	6	7	1	6	7	0.666667	6	6.5	1	6	6.5	0.666667	5.5	6.5	1	5.5	6.5	0.666667	5.5	6.5	1	5.5	6.5	0.666667	5.75	6.5	1	5.75	6.5	0.666667	5.75	6.25	1	5.75	6.25	0.666667	5.5	6.25	1	5.5	6.25	0.666667	5.75	6.5	1	5.75	6.5	0.666667	6	6.5	1	6	6.5	0.666667	6	6.25	1	6	6.25	0.666667	5.75	6.25	1	5.75	6.25	0.666667	5.75	6.25	1	5.75	6.25	0.666667	6	6.25	1	6	6.25	0.666667	6	6	1	6	6	0.666667	5.75	6	1	5.75	6	0.666667	5.5	6.25	1	5.5	6.25	0.666667	5.75	6.25	1	5.75	6.25	0.666667	5.75	6	1	5.75	6	0.666667	5.5	6	1	5.5	6	0.666667	5	6.5	1	5	6.5	0.666667	5.25	6.5	1	5.25	6.5	0.666667	5.25	6.25	1	5.25	6.25	0.666667	5	6.25	1	5	6.25	0.666667	5.25	6.5	1	5.25	6.5	0.666667	5.5	6.5	1	5.5	6.5	0.666667	5.5	6.25	1	5.5	6.25	0.666667	5.25	6.25	1	5.25	6.25	0.666667	5.25	6.25	1	5.25	6.25	0.666667	5.5	6.25	1	5.5	6.25	0.666667	5.5	6	1	5.5	6	0.666667	5.25	6	1	5.25	6	0.666667	5	6.25	1	5	6.25	0.666667	5.25	6.25	1	5.25	6.25	0.666667	5.25	6	1	5.25	6	0.666667	5	6	1	5	6	0.666667	6	7	1	6	7	0.666667	6.5	7	1	6.5	7	0.666667	6.5	6.5	1	6.5	6.5	0.666667	6	6.5	1	6	6.5	0.666667	6.5	7	1	6.5	7	0.666667	7	7	1	7	7	0.666667	7	6.5	1	7	6.5	0.666667	6.5	6.5	1	6.5	6.5	0.666667	6.5	6.5	1	6.5	6.5	0.666667	7	6.5	1	7	6.5	0.666667	7	6	1	7	6	0.666667	6.5	6	1	6.5	6	0.666667	6	6.5	1	6	6.5	0.666667	6.5	6.5	1	6.5	6.5	0.666667	6.5	6	1	6.5	6	0.666667	6	6	1	6	6	0.666667	7	7	1	7	7	0.666667	8	7	1	8	7	0.666667	8	6	1	8	6	0.666667	7	6	1	7	6	0.666667	8	7	1	8	7	0.666667	9	7	1	9	7	0.666667	9	6	1	9	6	0.666667	8	6	1	8	6	0.666667	9	7	1	9	7	0.666667	10	7	1	10	7	0.666667	10	6	1	10	6	0.666667	9	6	1	9	6	0.666667	0	6	1	0	6	0.666667	1	6	1	1	6	0.666667	1	5	1	1	5	0.666667	0	5	1	0	5	0.666667	1	6	1	1	6	0.666667	2	6	1	2	6	0.666667	2	5	1	2	5	0.666667	1	5	1	1	5	0.666667	2	6	1	2	6	0.666667	3	6	1	3	6	0.666667	3	5	1	3	5	0.666667	2	5	1	2	5	0.666667	3	6	1	3	6	0.666667	3.5	6	1	3.5	6	0.666667	3.5	5.5	1	3.5	5.5	0.666667	3	5.5	1	3	5.5	0.666667	3.5	6	1	3.5	6	0.666667	3.75	6	1	3.75	6	0.666667	3.75	5.75	1	3.75	5.75	0.666667	3.5	5.75	1	3.5	5.75	0.666667	3.75	6	1	3.75	6	0.666667	4	6	1	4	6	0.666667	4	5.75	1	4	5.75	0.666667	3.75	5.75	1	3.75	5.75	0.666667	3.75	5.75	1	3.75	5.75	0.666667	4	5.75	1	4	5.75	0.666667	4	5.5	1	4	5.5	0.666667	3.75	5.5	1	3.75	5.5	0.666667	3.5	5.75	1	3.5	5.75	0.666667	3.75	5.75	1	3.75	5.75	0.666667	3.75	5.5	1	3.75	5.5	0.666667	3.5	5.5	1	3.5	5.5	0.666667	3.5	5.5	1	3.5	5.5	0.666667	3.75	5.5	1	3.75	5.5	0.666667	3.75	5.25	1	3.75	5.25	0.666667	3.5	5.25	1	3.5	5.25	0.666667	3.75	5.5	1	3.75	5.5	0.666667	4	5.5	1	4	5.5	0.666667	4	5.25	1	4	5.25	0.666667	3.75	5.25	1	3.75	5.25	0.666667	3.75	5.25	1	3.75	5.25	0.666667	4	5.25	1	4	5.25	0.666667	4	5	1	4	5	0.666667	3.75	5	1	3.75	5	0.666667	3.5	5.25	1	3.5	5.25	0.666667	3.75	5.25	1	3.75	5.25	0.666667	3.75	5	1	3.75	5	0.666667	3.5	5	1	3.5	5	0.666667	3	5.5	1	3	5.5	0.666667	3.5	5.5	1	3.5	5.5	0.666667	3.5	5	1	3.5	5	0.666667	3	5	1	3	5	0.666667	4	6	1	4	6	0.666667	4.125	6	1	4.125	6	0.666667	4.125	5.875	1	4.125	5.875	0.666667	4	5.875	1	4	5.875	0.666667	4.125	6	1	4.125	6	0.666667	4.25	6	1	4.25	6	0.666667	4.25	5.875	1	4.25	5.875	0.666667	4.125	5.875	1	4.125	5.875	0.666667	4.125	5.875	1	4.125	5.875	0.666667	4.25	5.875	1	4.25	5.875	0.666667	4.25	5.75	1	4.25	5.75	0.666667	4.125	5.75	1	4.125	5.75	0.666667	4	5.875	1	4	5.875	0.666667	4.125	5.875	1	4.125	5.875	0.666667	4.125	5.75	1	4.125	5.75	0.666667	4	5.75	1	4	5.75	0.666667	4.25	6	1	4.25	6	0.666667	4.375	6	1	4.375	6	0.666667	4.375	5.875	1	4.375	5.875	0.666667	4.25	5.875	1	4.25	5.875	0.666667	4.375	6	1	4.375	6	0.666667	4.5	6	1	4.5	6	0.666667	4.5	5.875	1	4.5	5.875	0.666667	4.375	5.875	1	4.375	5.875	0.666667	4.375	5.875	1	4.375	5.875	0.666667	4.5	5.875	1	4.5	5.875	0.666667	4.5	5.75	1	4.5	5.75	0.666667	4.375	5.75	1	4.375	5.75	0.666667	4.25	5.875	1	4.25	5.875	0.666667	4.375	5.875	1	4.375	5.875	0.666667	4.375	5.75	1	4.375	5.75	0.666667	4.25	5.75	1	4.25	5.75	0.666667	4.25	5.75	1	4.25	5.75	0.666667	4.375	5.75	1	4.375	5.75	0.666667	4.375	5.625	1	4.375	5.625	0.666667	4.25	5.625	1	4.25	5.625	0.666667	4.375	5.75	1	4.375	5.75	0.666667	4.5	5.75	1	4.5	5.75	0.666667	4.5	5.625	1	4.5	5.625	0.666667	4.375	5.625	1	4.375	5.625	0.666667	4.375	5.625	1	4.375	5.625	0.666667	4.5	5.625	1	4.5	5.625	0.666667	4.5	5.5	1	4.5	5.5	0.666667	4.375	5.5	1	4.375	5.5	0.666667	4.25	5.625	1	4.25	5.625	0.666667	4.375	5.625	1	4.375	5.625	0.666667	4.375	5.5	1	4.375	5.5	0.666667	4.25	5.5	1	4.25	5.5	0.666667	4	5.75	1	4	5.75	0.666667	4.125	5.75	1	4.125	5.75	0.666667	4.125	5.625	1	4.125	5.625	0.666667	4	5.625	1	4	5.625	0.666667	4.125	5.75	1	4.125	5.75	0.666667	4.25	5.75	1	4.25	5.75	0.666667	4.25	5.625	1	4.25	5.625	0.666667	4.125	5.625	1	4.125	5.625	0.666667	4.125	5.625	1	4.125	5.625	0.666667	4.25	5.625	1	4.25	5.625	0.666667	4.25	5.5	1	4.25	5.5	0.666667	4.125	5.5	1	4.125	5.5	0.666667	4	5.625	1	4	5.625	0.666667	4.125	5.625	1	4.125	5.625	0.666667	4.125	5.5	1	4.125	5.5	0.666667	4	5.5	1	4	5.5	0.666667	4.5	6	1	4.5	6	0.666667	4.625	6	1	4.625	6	0.666667	4.625	5.875	1	4.625	5.875	0.666667	4.5	5.875	1	4.5	5.875	0.666667	4.625	6	1	4.625	6	0.666667	4.75	6	1	4.75	6	0.666667	4.75	5.875	1	4.75	5.875	0.666667	4.625	5.875	1	4.625	5.875	0.666667	4.625	5.875	1	4.625	5.875	0.666667	4.75	5.875	1	4.75	5.875	0.666667	4.75	5.75	1	4.75	5.75	0.666667	4.625	5.75	1	4.625	5.75	0.666667	4.5	5.875	1	4.5	5.875	0.666667	4.625	5.875	1	4.625	5.875	0.666667	4.625	5.75	1	4.625	5.75	0.666667	4.5	5.75	1	4.5	5.75	0.666667	4.75	6	1	4.75	6	0.666667	4.875	6	1	4.875	6	0.666667	4.875	5.875	1	4.875	5.875	0.666667	4.75	5.875	1	4.75	5.875	0.666667	4.875	6	1	4.875	6	0.666667	5	6	1	5	6	0.666667	5	5.875	1	5	5.875	0.666667	4.875	5.875	1	4.875	5.875	0.666667	4.875	5.875	1	4.875	5.875	0.666667	5	5.875	1	5	5.875	0.666667	5	5.75	1	5	5.75	0.666667	4.875	5.75	1	4.875	5.75	0.666667	4.75	5.875	1	4.75	5
[...]
<CellData Scalars="scalars">
<DataArray type="Int32" Name="nodeid" format="ascii">1	2	3	4	5	6	7	8	9	10	11	12	13	14	15	16	17	18	19	20	21	22	23	24	25	26	27	28	29	30	31	32	33	301	302	304	303	305	306	313	314	316	315	309	310	312	311	317	318	325	326	328	327	321	322	324	323	329	330	332	331	38	39	40	41	42	43	333	337	338	340	339	341	342	344	343	335	353	354	356	355	357	358	360	359	365	366	368	367	361	362	364	363	373	374	376	375	377	378	380	379	385	386	388	387	381	382	384	383	413	414	416	415	417	418	420	419	425	426	428	427	421	422	424	423	393	394	396	395	397	398	400	399	405	406	408	407	401	402	404	403	437	438	440	439	441	442	444	443	449	450	452	451	445	446	448	447	457	458	460	459	461	462	464	463	469	470	472	471	465	466	468	467	497	498	500	499	501	502	504	503	509	510	512	511	505	506	508	507	477	478	480	479	481	482	484	483	489	490	492	491	485	486	488	487	517	518	520	519	514	516	521	522	524	523	48	49	50	51	52	53	525	529	530	532	531	533	534	536	535	527	545	546	548	547	549	550	552	551	557	558	560	559	553	554	556	555	565	566	568	567	569	570	572	571	577	578	580	579	573	574	576	575	605	606	608	607	609	610	612	611	617	618	620	619	613	614	616	615	585	586	588	587	589	590	592	591	597	598	600	599	593	594	596	595	629	630	632	631	633	634	636	635	641	642	644	643	637	638	640	639	649	650	652	651	653	654	656	655	661	662	664	663	657	658	660	659	689	690	692	691	693	694	696	695	701	702	704	703	697	698	700	699	669	670	672	671	673	674	676	675	681	682	684	683	677	678	680	679	709	710	712	711	706	708	713	714	716	715	58	59	60	61	62	63	717	718	720	719	725	726	728	727	729	730	732	731	724	723	737	738	740	739	741	742	744	743	736	735	745	746	748	747	68	69	70	71	72	73	74	75	76	77	78	79	80	81	82	83	84	85	86	87	88	89	90	91	92	93	94	95	96	97	98	99	100	101	102	103	104	105	106	107	108	109	110	111	112	113	114	115	116	117	118	119	120	121	122	123	124	125	126	127	128	129	130	131	132	133	749	750	752	751	753	754	761	762	764	763	757	758	760	759	765	766	773	774	776	775	769	770	772	771	777	778	780	779	138	139	140	141	142	143	781	785	786	788	787	789	790	792	791	783	801	802	804	803	805	806	808	807	813	814	816	815	809	810	812	811	821	822	824	823	825	826	828	827	833	834	836	835	829	830	832	831	861	862	864	863	865	866	868	867	873	874	876	875	869	870	872	871	841	842	844	843	845	846	848	847	853	854	856	855	849	850	852	851	885	886	888	887	889	890	892	891	897	898	900	899	893	894	896	895	905	906	908	907	909	910	912	911	917	918	920	919	913	914	916	915	945	946	948	947	949	950	952	951	957	958	960	959	953	954	956	955	925	926	928	927	929	930	932	931	937	938	940	939	933	934	936	935	965	966	968	967	962	964	969	970	972	971	148	149	150	151	152	153	973	977	978	980	979	981	982	984	983	975	993	994	996	995	997	998	1000	999	1005	1006	1008	1007	1001	1002	1004	1003	1013	1014	1016	1015	1017	1018	1020	1019	1025	1026	1028	1027	1021	1022	1024	1023	1053	1054	1056	1055	1057	1058	1060	1059	1065	1066	1068	1067	1061	1062	1064	1063	1033	1034	1036	1035	1037	1038	1040	1039	1045	1046	1048	1047	1041	1042	1044	1043	1077	1078	1080	1079	1081	1082	1084	1083	1089	1090	1092	1091	1085	1086	1088	1087	1097	1098	1100	1099	1101	1102	1104	1103	1109	1110	1112	1111	1105	1106	1108	1107	1137	1138	1140	1139	1141	1142	1144	1143	1149	1150	1152	1151	1145	1146	1148	1147	1117	1118	1120	1119	1121	1122	1124	1123	1129	1130	1132	1131	1125	1126	1128	1127	1157	1158	1160	1159	1154	1156	1161	1162	1164	1163	158	159	160	161	162	163	1165	1166	1168	1167	1173	1174	1176	1175	1177	1178	1180	1179	1172	1171	1185	1186	1188	1187	1189	1190	1192	1191	1184	1183	1193	1194	1196	1195	168	169	170	171	172	173	174	175	176	177	178	179	180	181	182	183	184	185	186	187	188	189	190	191	192	193	194	195	196	197	198	199	200	201	202	203	204	205	206	207	208	209	210	211	212	213	214	215	216	217	218	219	220	221	222	223	224	225	226	227	228	229	230	231	232	233	1197	1198	1200	1199	1201	1202	1209	1210	1212	1211	1205	1206	1208	1207	1213	1214	1221	1222	1224	1223	1217	1218	1220	1219	1225	1226	1228	1227	238	239	240	241	242	243	1229	1233	1234	1236	1235	1237	1238	1240	1239	1231	1249	1250	1252	1251	1253	1254	1256	1255	1261	1262	1264	1263	1257	1258	1260	1259	1269	1270	1272	1271	1273	1274	1276	1275	1281	1282	1284	1283	1277	1278	1280	1279	1309	1310	1312	1311	1313	1314	1316	1315	1321	1322	1324	1323	1317	1318	1320	1319	1289	1290	1292	1291	1293	1294	1296	1295	1301	1302	1304	1303	1297	1298	1300	1299	1333	1334	1336	1335	1337	1338	1340	1339	1345	1346	1348	1347	1341	1342	1344	1343	1353	1354	1356	1355	1357	1358	1360	1359	1365	1366	1368	1367	1361	1362	1364	1363	1393	1394	1396	1395	1397	1398	1400	1399	1405	1406	1408	1407	1401	1402	1404	1403	1373	1374	1376	1375	1377	1378	1380	1379	1385	1386	1388	1387	1381	1382	1384	1383	1413	1414	1416	1415	1410	1412	1417	1418	1420	1419	248	249	250	251	252	253	1421	1425	1426	1428	1427	1429	1430	1432	1431	1423	1441	1442	1444	1443	1445	1446	1448	1447	1453	1454	1456	1455	1449	1450	1452	1451	1461	1462	1464	1463	1465	1466	1468	1467	1473	1474	1476	1475	1469	1470	1472	1471	1501	1502	1504	1503	1505	1506	1508	1507	1513	1514	1516	1515	1509	1510	1512	1511	1481	1482	1484	1483	1485	1486	1488	1487	1493	1494	1496	1495	1489	1490	1492	1491	1525	1526	1528	1527	1529	1530	1532	1531	1537	1538	1540	1539	1533	1534	1536	1535	1545	1546	1548	1547	1549	1550	1552	1551	1557	1558	1560	1559	1553	1554	1556	1555	1585	1586	1588	1587	1589	1590	1592	1591	1597	1598	1600	1599	1593	1594	1596	1595	1565	1566	1568	1567	1569	1570	1572	1571	1577	1578	1580	1579	1573	1574	1576	1575	1605	1606	1608	1607	1602	1604	1609	1610	1612	1611	258	259	260	261	262	263	1613	1614	1616	1615	1621	1622	1624	1623	1625	1626	1628	1627	1620	1619	1633	1634	1636	1635	1637	1638	1640	1639	1632	1631	1641	1642	1644	1643	268	269	270	271	272	273	274	275	276	277	278	279	280	281	282	283	284	285	286	287	288	289	290	291	292	293	294	295	296	297	298	299	300	</DataArray>
<DataArray type="Int32" Name="nodenumber" format="ascii">1	2	3	4	5	6	7	8	9	10	11	12	13	14	15	16	17	18	19	20	21	22	23	24	25	26	27	28	29	30	31	32	33	34	35	37	36	38	39	44	45	47	46	40	41	43	42	48	49	54	55	57	56	50	51	53	52	58	59	61	60	62	63	64	65	66	67	68	69	70	72	71	74	75	77	76	73	78	79	81	80	82	83	85	84	90	91	93	92	86	87	89	88	94	95	97	96	98	99	101	100	106	107	109	108	102	103	105	104	126	127	129	128	130	131	133	132	138	139	141	140	134	135	137	136	110	111	113	112	114	115	117	116	122	123	125	124	118	119	121	120	142	143	145	144	146	147	149	148	154	155	157	156	150	151	153	152	158	159	161	160	162	163	165	164	170	171	173	172	166	167	169	168	190	191	193	192	194	195	197	196	202	203	205	204	198	199	201	200	174	175	177	176	178	179	181	180	186	187	189	188	182	183	185	184	206	207	209	208	210	215	211	212	214	213	216	217	218	219	220	221	222	223	224	226	225	228	229	231	230	227	232	233	235	234	236	237	239	238	244	245	247	246	240	241	243	242	248	249	251	250	252	253	255	254	260	261	263	262	256	257	259	258	280	281	283	282	284	285	287	286	292	293	295	294	288	289	291	290	264	265	267	266	268	269	271	270	276	277	279	278	272	273	275	274	296	297	299	298	300	301	303	302	308	309	311	310	304	305	307	306	312	313	315	314	316	317	319	318	324	325	327	326	320	321	323	322	344	345	347	346	348	349	351	350	356	357	359	358	352	353	355	354	328	329	331	330	332	333	335	334	340	341	343	342	336	337	339	338	360	361	363	362	364	369	365	366	368	367	370	371	372	373	374	375	376	377	379	378	380	381	383	382	384	385	387	386	389	388	390	391	393	392	394	395	397	396	399	398	400	401	403	402	404	405	406	407	408	409	410	411	412	413	414	415	416	417	418	419	420	421	422	423	424	425	426	427	428	429	430	431	432	433	434	435	436	437	438	439	440	441	442	443	444	445	446	447	448	449	450	451	452	453	454	455	456	457	458	459	460	461	462	463	464	465	466	467	468	469	470	471	473	472	474	475	480	481	483	482	476	477	479	478	484	485	490	491	493	492	486	487	489	488	494	495	497	496	498	499	500	501	502	503	504	505	506	508	507	510	511	513	512	509	514	515	517	516	518	519	521	520	526	527	529	528	522	523	525	524	530	531	533	532	534	535	537	536	542	543	545	544	538	539	541	540	562	563	565	564	566	567	569	568	574	575	577	576	570	571	573	572	546	547	549	548	550	551	553	552	558	559	561	560	554	555	557	556	578	579	581	580	582	583	585	584	590	591	593	592	586	587	589	588	594	595	597	596	598	599	601	600	606	607	609	608	602	603	605	604	626	627	629	628	630	631	633	632	638	639	641	640	634	635	637	636	610	611	613	612	614	615	617	616	622	623	625	624	618	619	621	620	642	643	645	644	646	651	647	648	650	649	652	653	654	655	656	657	658	659	660	662	661	664	665	667	666	663	668	669	671	670	672	673	675	674	680	681	683	682	676	677	679	678	684	685	687	686	688	689	691	690	696	697	699	698	692	693	695	694	716	717	719	718	720	721	723	722	728	729	731	730	724	725	727	726	700	701	703	702	704	705	707	706	712	713	715	714	708	709	711	710	732	733	735	734	736	737	739	738	744	745	747	746	740	741	743	742	748	749	751	750	752	753	755	754	760	761	763	762	756	757	759	758	780	781	783	782	784	785	787	786	792	793	795	794	788	789	791	790	764	765	767	766	768	769	771	770	776	777	779	778	772	773	775	774	796	797	799	798	800	805	801	802	804	803	806	807	808	809	810	811	812	813	815	814	816	817	819	818	820	821	823	822	825	824	826	827	829	828	830	831	833	832	835	834	836	837	839	838	840	841	842	843	844	845	846	847	848	849	850	851	852	853	854	855	856	857	858	859	860	861	862	863	864	865	866	867	868	869	870	871	872	873	874	875	876	877	878	879	880	881	882	883	884	885	886	887	888	889	890	891	892	893	894	895	896	897	898	899	900	901	902	903	904	905	906	907	909	908	910	911	916	917	919	918	912	913	915	914	920	921	926	927	929	928	922	923	925	924	930	931	933	932	934	935	936	937	938	939	940	941	942	944	943	946	947	949	948	945	950	951	953	952	954	955	957	956	962	963	965	964	958	959	961	960	966	967	969	968	970	971	973	972	978	979	981	980	974	975	977	976	998	999	1001	1000	1002	1003	1005	1004	1010	1011	1013	1012	1006	1007	1009	1008	982	983	985	984	986	987	989	988	994	995	997	996	990	991	993	992	1014	1015	1017	1016	1018	1019	1021	1020	1026	1027	1029	1028	1022	1023	1025	1024	1030	1031	1033	1032	1034	1035	1037	1036	1042	1043	1045	1044	1038	1039	1041	1040	1062	1063	1065	1064	1066	1067	1069	1068	1074	1075	1077	1076	1070	1071	1073	1072	1046	1047	1049	1048	1050	1051	1053	1052	1058	1059	1061	1060	1054	1055	1057	1056	1078	1079	1081	1080	1082	1087	1083	1084	1086	1085	1088	1089	1090	1091	1092	1093	1094	1095	1096	1098	1097	1100	1101	1103	1102	1099	1104	1105	1107	1106	1108	1109	1111	1110	1116	1117	1119	1118	1112	1113	1115	1114	1120	1121	1123	1122	1124	1125	1127	1126	1132	1133	1135	1134	1128	1129	1131	1130	1152	1153	1155	1154	1156	1157	1159	1158	1164	1165	1167	1166	1160	1161	1163	1162	1136	1137	1139	1138	1140	1141	1143	1142	1148	1149	1151	1150	1144	1145	1147	1146	1168	1169	1171	1170	1172	1173	1175	1174	1180	1181	1183	1182	1176	1177	1179	1178	1184	1185	1187	1186	1188	1189	1191	1190	1196	1197	1199	1198	1192	1193	1195	1194	1216	1217	1219	1218	1220	1221	1223	1222	1228	1229	1231	1230	1224	1225	1227	1226	1200	1201	1203	1202	1204	1205	1207	1206	1212	1213	1215	1214	1208	1209	1211	1210	1232	1233	1235	1234	1236	1241	1237	1238	1240	1239	1242	1243	1244	1245	1246	1247	1248	1249	1251	1250	1252	1253	1255	1254	1256	1257	1259	1258	1261	1260	1262	1263	1265	1264	1266	1267	1269	1268	1271	1270	1272	1273	1275	1274	1276	1277	1278	1279	1280	1281	1282	1283	1284	1285	1286	1287	1288	1289	1290	1291	1292	1293	1294	1295	1296	1297	1298	1299	1300	1301	1302	1303	1304	1305	1306	1307	1308	</DataArray>
<DataArray type="Int32" Name="layer" format="ascii">1	1	1	1	1	1	1	1	1	1	1	1	1	1	1	1	1	1	1	1	1	1	1	1	1	1	1	1	1	1	1	1	1	1	1	1	1	1	1	1	1	1	1	1	1	1	1	1	1	1	1	1	1	1	1	1	1	1	1	1	1	1	1	1	1	1	1	1	1	1	1	1	1	1	1	1	1	1	1	1	1	1	1	1	1	1	1	1	1	1	1	1	1	1	1	1	1	1	1	1	1	1	1	1	1	1	1	1	1	1	1	1	1	1	1	1	1	1	1	1	1	1	1	1	1	1	1	1	1	1	1	1	1	1	1	1	1	1	1	1	1	1	1	1	1	1	1	1	1	1	1	1	1	1	1	1	1	1	1	1	1	1	1	1	1	1	1	1	1	1	1	1	1	1	1	1	1	1	1	1	1	1	1	1	1	1	1	1	1	1	1	1	1	1	1	1	1	1	1	1	1	1	1	1	1	1	1	1	1	1	1	1	1	1	1	1	1	1	1	1	1	1	1	1	1	1	1	1	1	1	1	1	1	1	1	1	1	1	1	1	1	1	1	1	1	1	1	1	1	1	1	1	1	1	1	1	1	1	1	1	1	1	1	1	1	1	1	1	1	1	1	1	1	1	1	1	1	1	1	1	1	1	1	1	1	1	1	1	1	1	1	1	1	1	1	1	1	1	1	1	1	1	1	1	1	1	1	1	1	1	1	1	1	1	1	1	1	1	1	1	1	1	1	1	1	1	1	1	1	1	1	1	1	1	1	1	1	1	1	1	1	1	1	1	1	1	1	1	1	1	1	1	1	1	1	1	1	1	1	1	1	1	1	1	1	1	1	1	1	1	1	1	1	1	1	1	1	1	1	1	1	1	1	1	1	1	1	1	1	1	1	1	1	1	1	1	1	1	1	1	1	1	1	1	1	1	1	1	1	1	1	1	1	1	1	1	1	1	1	1	1	1	1	1	1	1	1	1	1	1	1	1	1	1	1	1	2	2	2	2	2	2	2	2	2	2	2	2	2	2	2	2	2	2	2	2	2	2	2	2	2	2	2	2	2	2	2	2	2	2	2	2	2	2	2	2	2	2	2	2	2	2	2	2	2	2	2	2	2	2	2	2	2	2	2	2	2	2	2	2	2	2	2	2	2	2	2	2	2	2	2	2	2	2	2	2	2	2	2	2	2	2	2	2	2	2	2	2	2	2	2	2	2	2	2	2	2	2	2	2	2	2	2	2	2	2	2	2	2	2	2	2	2	2	2	2	2	2	2	2	2	2	2	2	2	2	2	2	2	2	2	2	2	2	2	2	2	2	2	2	2	2	2	2	2	2	2	2	2	2	2	2	2	2	2	2	2	2	2	2	2	2	2	2	2	2	2	2	2	2	2	2	2	2	2	2	2	2	2	2	2	2	2	2	2	2	2	2	2	2	2	2	2	2	2	2	2	2	2	2	2	2	2	2	2	2	2	2	2	2	2	2	2	2	2	2	2	2	2	2	2	2	2	2	2	2	2	2	2	2	2	2	2	2	2	2	2	2	2	2	2	2	2	2	2	2	2	2	2	2	2	2	2	2	2	2	2	2	2	2	2	2	2	2	2	2	2	2	2	2	2	2	2	2	2	2	2	2	2	2	2	2	2	2	2	2	2	2	2	2	2	2	2	2	2	2	2	2	2	2	2	2	2	2	2	2	2	2	2	2	2	2	2	2	2	2	2	2	2	2	2	2	2	2	2	2	2	2	2	2	2	2	2	2	2	2	2	2	2	2	2	2	2	2	2	2	2	2	2	2	2	2	2	2	2	2	2	2	2	2	2	2	2	2	2	2	2	2	2	2	2	2	2	2	2	2	2	2	2	2	2	2	2	2	2	2	2	2	2	2	2	2	2	2	2	2	2	2	2	2	2	2	2	2	2	2	2	2	2	2	2	2	2	2	2	2	2	2	2	2	2	2	2	2	2	2	2	2	2	2	2	2	3	3	3	3	3	3	3	3	3	3	3	3	3	3	3	3	3	3	3	3	3	3	3	3	3	3	3	3	3	3	3	3	3	3	3	3	3	3	3	3	3	3	3	3	3	3	3	3	3	3	3	3	3	3	3	3	3	3	3	3	3	3	3	3	3	3	3	3	3	3	3	3	3	3	3	3	3	3	3	3	3	3	3	3	3	3	3	3	3	3	3	3	3	3	3	3	3	3	3	3	3	3	3	3	3	3	3	3	3	3	3	3	3	3	3	3	3	3	3	3	3	3	3	3	3	3	3	3	3	3	3	3	3	3	3	3	3	3	3	3	3	3	3	3	3	3	3	3	3	3	3	3	3	3	3	3	3	3	3	3	3	3	3	3	3	3	3	3	3	3	3	3	3	3	3	3	3	3	3	3	3	3	3	3	3	3	3	3	3	3	3	3	3	3	3	3	3	3	3	3	3	3	3	3	3	3	3	3	3	3	3	3	3	3	3	3	3	3	3	3	3	3	3	3	3	3	3	3	3	3	3	3	3	3	3	3	3	3	3	3	3	3	3	3	3	3	3	3	3	3	3	3	3	3	3	3	3	3	3	3	3	3	3	3	3	3	3	3	3	3	3	3	3	3	3	3	3	3	3	3	3	3	3	3	3	3	3	3	3	3	3	3	3	3	3	3	3	3	3	3	3	3	3	3	3	3	3	3	3	3	3	3	3	3	3	3	3	3	3	3	3	3	3	3	3	3	3	3	3	3	3	3	3	3	3	3	3	3	3	3	3	3	3	3	3	3	3	3	3	3	3	3	3	3	3	3	3	3	3	3	3	3	3	3	3	3	3	3	3	3	3	3	3	3	3	3	3	3	3	3	3	3	3	3	3	3	3	3	3	3	3	3	3	3	3	3	3	3	3	3	3	3	3	3	3	3	3	3	3	3	3	3	3	3	3	3	3	3	3	3	3	3	3	3	3	3	3	3	3	3	3	3	3	3	3	3	</DataArray>
<DataArray type="Int32" Name="row" format="ascii">1	1	1	1	1	1	1	1	1	1	2	2	2	2	2	2	2	2	2	2	3	3	3	3	3	3	3	3	3	3	4	4	4	4	4	4	4	4	4	4	4	4	4	4	4	4	4	4	4	4	4	4	4	4	4	4	4	4	4	4	4	4	4	4	5	5	5	5	5	5	5	5	5	5	5	5	5	5	5	5	5	5	5	5	5	5	5	5	5	5	5	5	5	5	5	5	5	5	5	5	5	5	5	5	5	5	5	5	5	5	5	5	5	5	5	5	5	5	5	5	5	5	5	5	5	5	5	5	5	5	5	5	5	5	5	5	5	5	5	5	5	5	5	5	5	5	5	5	5	5	5	5	5	5	5	5	5	5	5	5	5	5	5	5	5	5	5	5	5	5	5	5	5	5	5	5	5	5	5	5	5	5	5	5	5	5	5	5	5	5	5	5	5	5	5	5	5	5	5	5	5	5	5	5	5	5	5	5	5	5	5	5	5	5	5	5	5	5	6	6	6	6	6	6	6	6	6	6	6	6	6	6	6	6	6	6	6	6	6	6	6	6	6	6	6	6	6	6	6	6	6	6	6	6	6	6	6	6	6	6	6	6	6	6	6	6	6	6	6	6	6	6	6	6	6	6	6	6	6	6	6	6	6	6	6	6	6	6	6	6	6	6	6	6	6	6	6	6	6	6	6	6	6	6	6	6	6	6	6	6	6	6	6	6	6	6	6	6	6	6	6	6	6	6	6	6	6	6	6	6	6	6	6	6	6	6	6	6	6	6	6	6	6	6	6	6	6	6	6	6	6	6	6	6	6	6	6	6	6	6	6	6	6	6	6	6	6	6	6	6	6	6	7	7	7	7	7	7	7	7	7	7	7	7	7	7	7	7	7	7	7	7	7	7	7	7	7	7	7	7	7	7	7	7	7	7	8	8	8	8	8	8	8	8	8	8	9	9	9	9	9	9	9	9	9	9	10	10	10	10	10	10	10	10	10	10	1	1	1	1	1	1	1	1	1	1	2	2	2	2	2	2	2	2	2	2	3	3	3	3	3	3	3	3	3	3	4	4	4	4	4	4	4	4	4	4	4	4	4	4	4	4	4	4	4	4	4	4	4	4	4	4	4	4	4	4	4	4	4	4	5	5	5	5	5	5	5	5	5	5	5	5	5	5	5	5	5	5	5	5	5	5	5	5	5	5	5	5	5	5	5	5	5	5	5	5	5	5	5	5	5	5	5	5	5	5	5	5	5	5	5	5	5	5	5	5	5	5	5	5	5	5	5	5	5	5	5	5	5	5	5	5	5	5	5	5	5	5	5	5	5	5	5	5	5	5	5	5	5	5	5	5	5	5	5	5	5	5	5	5	5	5	5	5	5	5	5	5	5	5	5	5	5	5	5	5	5	5	5	5	5	5	5	5	5	5	5	5	5	5	5	5	5	5	5	5	5	5	5	5	5	5	5	5	5	5	5	5	5	5	5	5	5	5	6	6	6	6	6	6	6	6	6	6	6	6	6	6	6	6	6	6	6	6	6	6	6	6	6	6	6	6	6	6	6	6	6	6	6	6	6	6	6	6	6	6	6	6	6	6	6	6	6	6	6	6	6	6	6	6	6	6	6	6	6	6	6	6	6	6	6	6	6	6	6	6	6	6	6	6	6	6	6	6	6	6	6	6	6	6	6	6	6	6	6	6	6	6	6	6	6	6	6	6	6	6	6	6	6	6	6	6	6	6	6	6	6	6	6	6	6	6	6	6	6	6	6	6	6	6	6	6	6	6	6	6	6	6	6	6	6	6	6	6	6	6	6	6	6	6	6	6	6	6	6	6	6	6	7	7	7	7	7	7	7	7	7	7	7	7	7	7	7	7	7	7	7	7	7	7	7	7	7	7	7	7	7	7	7	7	7	7	8	8	8	8	8	8	8	8	8	8	9	9	9	9	9	9	9	9	9	9	10	10	10	10	10	10	10	10	10	10	1	1	1	1	1	1	1	1	1	1	2	2	2	2	2	2	2	2	2	2	3	3	3	3	3	3	3	3	3	3	4	4	4	4	4	4	4	4	4	4	4	4	4	4	4	4	4	4	4	4	4	4	4	4	4	4	4	4	4	4	4	4	4	4	5	5	5	5	5	5	5	5	5	5	5	5	5	5	5	5	5	5	5	5	5	5	5	5	5	5	5	5	5	5	5	5	5	5	5	5	5	5	5	5	5	5	5	5	5	5	5	5	5	5	5	5	5	5	5	5	5	5	5	5	5	5	5	5	5	5	5	5	5	5	5	5	5	5	5	5	5	5	5	5	5	5	5	5	5	5	5	5	5	5	5	5	5	5	5	5	5	5	5	5	5	5	5	5	5	5	5	5	5	5	5	5	5	5	5	5	5	5	5	5	5	5	5	5	5	5	5	5	5	5	5	5	5	5	5	5	5	5	5	5	5	5	5	5	5	5	5	5	5	5	5	5	5	5	6	6	6	6	6	6	6	6	6	6	6	6	6	6	6	6	6	6	6	6	6	6	6	6	6	6	6	6	6	6	6	6	6	6	6	6	6	6	6	6	6	6	6	6	6	6	6	6	6	6	6	6	6	6	6	6	6	6	6	6	6	6	6	6	6	6	6	6	6	6	6	6	6	6	6	6	6	6	6	6	6	6	6	6	6	6	6	6	6	6	6	6	6	6	6	6	6	6	6	6	6	6	6	6	6	6	6	6	6	6	6	6	6	6	6	6	6	6	6	6	6	6	6	6	6	6	6	6	6	6	6	6	6	6	6	6	6	6	6	6	6	6	6	6	6	6	6	6	6	6	6	6	6	6	7	7	7	7	7	7	7	7	7	7	7	7	7	7	7	7	7	7	7	7	7	7	7	7	7	7	7	7	7	7	7	7	7	7	8	8	8	8	8	8	8	8	8	8	9	9	9	9	9	9	9	9	9	9	10	10	10	10	10	10	10	10	10	10	</DataArray>
<DataArray type="Int32" Name="col" format="ascii">1	2	3	4	5	6	7	8	9	10	1	2	3	4	5	6	7	8	9	10	1	2	3	4	5	6	7	8	9	10	1	2	3	4	4	4	4	5	5	5	5	5	5	5	5	5	5	6	6	6	6	6	6	6	6	6	6	7	7	7	7	8	9	10	1	2	3	4	4	4	4	4	4	4	4	4	4	5	5	5	5	5	5	5	5	5	5	5	5	5	5	5	5	5	5	5	5	5	5	5	5	5	5	5	5	5	5	5	5	5	5	5	5	5	5	5	5	5	5	5	5	5	5	5	5	5	5	5	5	5	5	5	5	5	5	5	5	5	5	5	5	6	6	6	6	6	6	6	6	6	6	6	6	6	6	6	6	6	6	6	6	6	6	6	6	6	6	6	6	6	6	6	6	6	6	6	6	6	6	6	6	6	6	6	6	6	6	6	6	6	6	6	6	6	6	6	6	6	6	6	6	6	6	6	6	7	7	7	7	7	7	7	7	7	7	8	9	10	1	2	3	4	4	4	4	4	4	4	4	4	4	5	5	5	5	5	5	5	5	5	5	5	5	5	5	5	5	5	5	5	5	5	5	5	5	5	5	5	5	5	5	5	5	5	5	5	5	5	5	5	5	5	5	5	5	5	5	5	5	5	5	5	5	5	5	5	5	5	5	5	5	5	5	5	5	6	6	6	6	6	6	6	6	6	6	6	6	6	6	6	6	6	6	6	6	6	6	6	6	6	6	6	6	6	6	6	6	6	6	6	6	6	6	6	6	6	6	6	6	6	6	6	6	6	6	6	6	6	6	6	6	6	6	6	6	6	6	6	6	7	7	7	7	7	7	7	7	7	7	8	9	10	1	2	3	4	4	4	4	5	5	5	5	5	5	5	5	5	5	6	6	6	6	6	6	6	6	6	6	7	7	7	7	8	9	10	1	2	3	4	5	6	7	8	9	10	1	2	3	4	5	6	7	8	9	10	1	2	3	4	5	6	7	8	9	10	1	2	3	4	5	6	7	8	9	10	1	2	3	4	5	6	7	8	9	10	1	2	3	4	5	6	7	8	9	10	1	2	3	4	4	4	4	5	5	5	5	5	5	5	5	5	5	6	6	6	6	6	6	6	6	6	6	7	7	7	7	8	9	10	1	2	3	4	4	4	4	4	4	4	4	4	4	5	5	5	5	5	5	5	5	5	5	5	5	5	5	5	5	5	5	5	5	5	5	5	5	5	5	5	5	5	5	5	5	5	5	5	5	5	5	5	5	5	5	5	5	5	5	5	5	5	5	5	5	5	5	5	5	5	5	5	5	5	5	5	5	6	6	6	6	6	6	6	6	6	6	6	6	6	6	6	6	6	6	6	6	6	6	6	6	6	6	6	6	6	6	6	6	6	6	6	6	6	6	6	6	6	6	6	6	6	6	6	6	6	6	6	6	6	6	6	6	6	6	6	6	6	6	6	6	7	7	7	7	7	7	7	7	7	7	8	9	10	1	2	3	4	4	4	4	4	4	4	4	4	4	5	5	5	5	5	5	5	5	5	5	5	5	5	5	5	5	5	5	5	5	5	5	5	5	5	5	5	5	5	5	5	5	5	5	5	5	5	5	5	5	5	5	5	5	5	5	5	5	5	5	5	5	5	5	5	5	5	5	5	5	5	5	5	5	6	6	6	6	6	6	6	6	6	6	6	6	6	6	6	6	6	6	6	6	6	6	6	6	6	6	6	6	6	6	6	6	6	6	6	6	6	6	6	6	6	6	6	6	6	6	6	6	6	6	6	6	6	6	6	6	6	6	6	6	6	6	6	6	7	7	7	7	7	7	7	7	7	7	8	9	10	1	2	3	4	4	4	4	5	5	5	5	5	5	5	5	5	5	6	6	6	6	6	6	6	6	6	6	7	7	7	7	8	9	10	1	2	3	4	5	6	7	8	9	10	1	2	3	4	5	6	7	8	9	10	1	2	3	4	5	6	7	8	9	10	1	2	3	4	5	6	7	8	9	10	1	2	3	4	5	6	7	8	9	10	1	2	3	4	5	6	7	8	9	10	1	2	3	4	4	4	4	5	5	5	5	5	5	5	5	5	5	6	6	6	6	6	6	6	6	6	6	7	7	7	7	8	9	10	1	2	3	4	4	4	4	4	4	4	4	4	4	5	5	5	5	5	5	5	5	5	5	5	5	5	5	5	5	5	5	5	5	5	5	5	5	5	5	5	5	5	5	5	5	5	5	5	5	5	5	5	5	5	5	5	5	5	5	5	5	5	5	5	5	5	5	5	5	5	5	5	5	5	5	5	5	6	6	6	6	6	6	6	6	6	6	6	6	6	6	6	6	6	6	6	6	6	6	6	6	6	6	6	6	6	6	6	6	6	6	6	6	6	6	6	6	6	6	6	6	6	6	6	6	6	6	6	6	6	6	6	6	6	6	6	6	6	6	6	6	7	7	7	7	7	7	7	7	7	7	8	9	10	1	2	3	4	4	4	4	4	4	4	4	4	4	5	5	5	5	5	5	5	5	5	5	5	5	5	5	5	5	5	5	5	5	5	5	5	5	5	5	5	5	5	5	5	5	5	5	5	5	5	5	5	5	5	5	5	5	5	5	5	5	5	5	5	5	5	5	5	5	5	5	5	5	5	5	5	5	6	6	6	6	6	6	6	6	6	6	6	6	6	6	6	6	6	6	6	6	6	6	6	6	6	6	6	6	6	6	6	6	6	6	6	6	6	6	6	6	6	6	6	6	6	6	6	6	6	6	6	6	6	6	6	6	6	6	6	6	6	6	6	6	7	7	7	7	7	7	7	7	7	7	8	9	10	1	2	3	4	4	4	4	5	5	5	5	5	5	5	5	5	5	6	6	6	6	6	6	6	6	6	6	7	7	7	7	8	9	10	1	2	3	4	5	6	7	8	9	10	1	2	3	4	5	6	7	8	9	10	1	2	3	4	5	6	7	8	9	10	</DataArray>